<?xml version="1.0"?>
<VTKFile type="UnstructuredGrid"  version="0.1"  >
<UnstructuredGrid>
<Piece  NumberOfPoints="216" NumberOfCells="1650">
<Points>
<DataArray  type="Float64"  NumberOfComponents="3"  format="ascii">-2.5 -2.5 -2.5  -1.5 -2.5 -2.5  -0.5 -2.5 -2.5  0.5 -2.5 -2.5  1.5 -2.5 -2.5  2.5 -2.5 -2.5  -2.5 -1.5 -2.5  -1.5 -1.5 -2.5  -0.5 -1.5 -2.5  0.5 -1.5 -2.5  1.5 -1.5 -2.5  2.5 -1.5 -2.5  -2.5 -0.5 -2.5  -1.5 -0.5 -2.5  -0.5 -0.5 -2.5  0.5 -0.5 -2.5  1.5 -0.5 -2.5  2.5 -0.5 -2.5  -2.5 0.5 -2.5  -1.5 0.5 -2.5  -0.5 0.5 -2.5  0.5 0.5 -2.5  1.5 0.5 -2.5  2.5 0.5 -2.5  -2.5 1.5 -2.5  -1.5 1.5 -2.5  -0.5 1.5 -2.5  0.5 1.5 -2.5  1.5 1.5 -2.5  2.5 1.5 -2.5  -2.5 2.5 -2.5  -1.5 2.5 -2.5  -0.5 2.5 -2.5  0.5 2.5 -2.5  1.5 2.5 -2.5  2.5 2.5 -2.5  -2.5 -2.5 -1.5  -1.5 -2.5 -1.5  -0.5 -2.5 -1.5  0.5 -2.5 -1.5  1.5 -2.5 -1.5  2.5 -2.5 -1.5  -2.5 -1.5 -1.5  -1.5 -1.5 -1.5  -0.5 -1.5 -1.5  0.5 -1.5 -1.5  1.5 -1.5 -1.5  2.5 -1.5 -1.5  -2.5 -0.5 -1.5  -1.5 -0.5 -1.5  -0.5 -0.5 -1.5  0.5 -0.5 -1.5  1.5 -0.5 -1.5  2.5 -0.5 -1.5  -2.5 0.5 -1.5  -1.5 0.5 -1.5  -0.5 0.5 -1.5  0.5 0.5 -1.5  1.5 0.5 -1.5  2.5 0.5 -1.5  -2.5 1.5 -1.5  -1.5 1.5 -1.5  -0.5 1.5 -1.5  0.5 1.5 -1.5  1.5 1.5 -1.5  2.5 1.5 -1.5  -2.5 2.5 -1.5  -1.5 2.5 -1.5  -0.5 2.5 -1.5  0.5 2.5 -1.5  1.5 2.5 -1.5  2.5 2.5 -1.5  -2.5 -2.5 -0.5  -1.5 -2.5 -0.5  -0.5 -2.5 -0.5  0.5 -2.5 -0.5  1.5 -2.5 -0.5  2.5 -2.5 -0.5  -2.5 -1.5 -0.5  -1.5 -1.5 -0.5  -0.5 -1.5 -0.5  0.5 -1.5 -0.5  1.5 -1.5 -0.5  2.5 -1.5 -0.5  -2.5 -0.5 -0.5  -1.5 -0.5 -0.5  -0.5 -0.5 -0.5  0.5 -0.5 -0.5  1.5 -0.5 -0.5  2.5 -0.5 -0.5  -2.5 0.5 -0.5  -1.5 0.5 -0.5  -0.5 0.5 -0.5  0.5 0.5 -0.5  1.5 0.5 -0.5  2.5 0.5 -0.5  -2.5 1.5 -0.5  -1.5 1.5 -0.5  -0.5 1.5 -0.5  0.5 1.5 -0.5  1.5 1.5 -0.5  2.5 1.5 -0.5  -2.5 2.5 -0.5  -1.5 2.5 -0.5  -0.5 2.5 -0.5  0.5 2.5 -0.5  1.5 2.5 -0.5  2.5 2.5 -0.5  -2.5 -2.5 0.5  -1.5 -2.5 0.5  -0.5 -2.5 0.5  0.5 -2.5 0.5  1.5 -2.5 0.5  2.5 -2.5 0.5  -2.5 -1.5 0.5  -1.5 -1.5 0.5  -0.5 -1.5 0.5  0.5 -1.5 0.5  1.5 -1.5 0.5  2.5 -1.5 0.5  -2.5 -0.5 0.5  -1.5 -0.5 0.5  -0.5 -0.5 0.5  0.5 -0.5 0.5  1.5 -0.5 0.5  2.5 -0.5 0.5  -2.5 0.5 0.5  -1.5 0.5 0.5  -0.5 0.5 0.5  0.5 0.5 0.5  1.5 0.5 0.5  2.5 0.5 0.5  -2.5 1.5 0.5  -1.5 1.5 0.5  -0.5 1.5 0.5  0.5 1.5 0.5  1.5 1.5 0.5  2.5 1.5 0.5  -2.5 2.5 0.5  -1.5 2.5 0.5  -0.5 2.5 0.5  0.5 2.5 0.5  1.5 2.5 0.5  2.5 2.5 0.5  -2.5 -2.5 1.5  -1.5 -2.5 1.5  -0.5 -2.5 1.5  0.5 -2.5 1.5  1.5 -2.5 1.5  2.5 -2.5 1.5  -2.5 -1.5 1.5  -1.5 -1.5 1.5  -0.5 -1.5 1.5  0.5 -1.5 1.5  1.5 -1.5 1.5  2.5 -1.5 1.5  -2.5 -0.5 1.5  -1.5 -0.5 1.5  -0.5 -0.5 1.5  0.5 -0.5 1.5  1.5 -0.5 1.5  2.5 -0.5 1.5  -2.5 0.5 1.5  -1.5 0.5 1.5  -0.5 0.5 1.5  0.5 0.5 1.5  1.5 0.5 1.5  2.5 0.5 1.5  -2.5 1.5 1.5  -1.5 1.5 1.5  -0.5 1.5 1.5  0.5 1.5 1.5  1.5 1.5 1.5  2.5 1.5 1.5  -2.5 2.5 1.5  -1.5 2.5 1.5  -0.5 2.5 1.5  0.5 2.5 1.5  1.5 2.5 1.5  2.5 2.5 1.5  -2.5 -2.5 2.5  -1.5 -2.5 2.5  -0.5 -2.5 2.5  0.5 -2.5 2.5  1.5 -2.5 2.5  2.5 -2.5 2.5  -2.5 -1.5 2.5  -1.5 -1.5 2.5  -0.5 -1.5 2.5  0.5 -1.5 2.5  1.5 -1.5 2.5  2.5 -1.5 2.5  -2.5 -0.5 2.5  -1.5 -0.5 2.5  -0.5 -0.5 2.5  0.5 -0.5 2.5  1.5 -0.5 2.5  2.5 -0.5 2.5  -2.5 0.5 2.5  -1.5 0.5 2.5  -0.5 0.5 2.5  0.5 0.5 2.5  1.5 0.5 2.5  2.5 0.5 2.5  -2.5 1.5 2.5  -1.5 1.5 2.5  -0.5 1.5 2.5  0.5 1.5 2.5  1.5 1.5 2.5  2.5 1.5 2.5  -2.5 2.5 2.5  -1.5 2.5 2.5  -0.5 2.5 2.5  0.5 2.5 2.5  1.5 2.5 2.5  2.5 2.5 2.5  </DataArray>
</Points>
<Cells>
<DataArray  type="UInt32"  Name="connectivity"  format="ascii">0 1 7  0 1 37  0 1 43  0 6 7  0 6 42  0 6 43  0 7 43  0 36 37  0 36 42  0 36 43  0 37 43  0 42 43  1 2 8  1 2 38  1 2 44  1 7 8  1 7 43  1 7 44  1 8 44  1 37 38  1 37 43  1 37 44  1 38 44  1 43 44  2 3 9  2 3 39  2 3 45  2 8 9  2 8 44  2 8 45  2 9 45  2 38 39  2 38 44  2 38 45  2 39 45  2 44 45  3 4 10  3 4 40  3 4 46  3 9 10  3 9 45  3 9 46  3 10 46  3 39 40  3 39 45  3 39 46  3 40 46  3 45 46  4 5 11  4 5 41  4 5 47  4 10 11  4 10 46  4 10 47  4 11 47  4 40 41  4 40 46  4 40 47  4 41 47  4 46 47  5 11 47  5 41 47  6 7 13  6 7 43  6 7 49  6 12 13  6 12 48  6 12 49  6 13 49  6 42 43  6 42 48  6 42 49  6 43 49  6 48 49  7 8 14  7 8 44  7 8 50  7 13 14  7 13 49  7 13 50  7 14 50  7 43 44  7 43 49  7 43 50  7 44 50  7 49 50  8 9 15  8 9 45  8 9 51  8 14 15  8 14 50  8 14 51  8 15 51  8 44 45  8 44 50  8 44 51  8 45 51  8 50 51  9 10 16  9 10 46  9 10 52  9 15 16  9 15 51  9 15 52  9 16 52  9 45 46  9 45 51  9 45 52  9 46 52  9 51 52  10 11 17  10 11 47  10 11 53  10 16 17  10 16 52  10 16 53  10 17 53  10 46 47  10 46 52  10 46 53  10 47 53  10 52 53  11 17 53  11 47 53  12 13 19  12 13 49  12 13 55  12 18 19  12 18 54  12 18 55  12 19 55  12 48 49  12 48 54  12 48 55  12 49 55  12 54 55  13 14 20  13 14 50  13 14 56  13 19 20  13 19 55  13 19 56  13 20 56  13 49 50  13 49 55  13 49 56  13 50 56  13 55 56  14 15 21  14 15 51  14 15 57  14 20 21  14 20 56  14 20 57  14 21 57  14 50 51  14 50 56  14 50 57  14 51 57  14 56 57  15 16 22  15 16 52  15 16 58  15 21 22  15 21 57  15 21 58  15 22 58  15 51 52  15 51 57  15 51 58  15 52 58  15 57 58  16 17 23  16 17 53  16 17 59  16 22 23  16 22 58  16 22 59  16 23 59  16 52 53  16 52 58  16 52 59  16 53 59  16 58 59  17 23 59  17 53 59  18 19 25  18 19 55  18 19 61  18 24 25  18 24 60  18 24 61  18 25 61  18 54 55  18 54 60  18 54 61  18 55 61  18 60 61  19 20 26  19 20 56  19 20 62  19 25 26  19 25 61  19 25 62  19 26 62  19 55 56  19 55 61  19 55 62  19 56 62  19 61 62  20 21 27  20 21 57  20 21 63  20 26 27  20 26 62  20 26 63  20 27 63  20 56 57  20 56 62  20 56 63  20 57 63  20 62 63  21 22 28  21 22 58  21 22 64  21 27 28  21 27 63  21 27 64  21 28 64  21 57 58  21 57 63  21 57 64  21 58 64  21 63 64  22 23 29  22 23 59  22 23 65  22 28 29  22 28 64  22 28 65  22 29 65  22 58 59  22 58 64  22 58 65  22 59 65  22 64 65  23 29 65  23 59 65  24 25 31  24 25 61  24 25 67  24 30 31  24 30 66  24 30 67  24 31 67  24 60 61  24 60 66  24 60 67  24 61 67  24 66 67  25 26 32  25 26 62  25 26 68  25 31 32  25 31 67  25 31 68  25 32 68  25 61 62  25 61 67  25 61 68  25 62 68  25 67 68  26 27 33  26 27 63  26 27 69  26 32 33  26 32 68  26 32 69  26 33 69  26 62 63  26 62 68  26 62 69  26 63 69  26 68 69  27 28 34  27 28 64  27 28 70  27 33 34  27 33 69  27 33 70  27 34 70  27 63 64  27 63 69  27 63 70  27 64 70  27 69 70  28 29 35  28 29 65  28 29 71  28 34 35  28 34 70  28 34 71  28 35 71  28 64 65  28 64 70  28 64 71  28 65 71  28 70 71  29 35 71  29 65 71  30 31 67  30 66 67  31 32 68  31 67 68  32 33 69  32 68 69  33 34 70  33 69 70  34 35 71  34 70 71  36 37 43  36 37 73  36 37 79  36 42 43  36 42 78  36 42 79  36 43 79  36 72 73  36 72 78  36 72 79  36 73 79  36 78 79  37 38 44  37 38 74  37 38 80  37 43 44  37 43 79  37 43 80  37 44 80  37 73 74  37 73 79  37 73 80  37 74 80  37 79 80  38 39 45  38 39 75  38 39 81  38 44 45  38 44 80  38 44 81  38 45 81  38 74 75  38 74 80  38 74 81  38 75 81  38 80 81  39 40 46  39 40 76  39 40 82  39 45 46  39 45 81  39 45 82  39 46 82  39 75 76  39 75 81  39 75 82  39 76 82  39 81 82  40 41 47  40 41 77  40 41 83  40 46 47  40 46 82  40 46 83  40 47 83  40 76 77  40 76 82  40 76 83  40 77 83  40 82 83  41 47 83  41 77 83  42 43 49  42 43 79  42 43 85  42 48 49  42 48 84  42 48 85  42 49 85  42 78 79  42 78 84  42 78 85  42 79 85  42 84 85  43 44 50  43 44 80  43 44 86  43 49 50  43 49 85  43 49 86  43 50 86  43 79 80  43 79 85  43 79 86  43 80 86  43 85 86  44 45 51  44 45 81  44 45 87  44 50 51  44 50 86  44 50 87  44 51 87  44 80 81  44 80 86  44 80 87  44 81 87  44 86 87  45 46 52  45 46 82  45 46 88  45 51 52  45 51 87  45 51 88  45 52 88  45 81 82  45 81 87  45 81 88  45 82 88  45 87 88  46 47 53  46 47 83  46 47 89  46 52 53  46 52 88  46 52 89  46 53 89  46 82 83  46 82 88  46 82 89  46 83 89  46 88 89  47 53 89  47 83 89  48 49 55  48 49 85  48 49 91  48 54 55  48 54 90  48 54 91  48 55 91  48 84 85  48 84 90  48 84 91  48 85 91  48 90 91  49 50 56  49 50 86  49 50 92  49 55 56  49 55 91  49 55 92  49 56 92  49 85 86  49 85 91  49 85 92  49 86 92  49 91 92  50 51 57  50 51 87  50 51 93  50 56 57  50 56 92  50 56 93  50 57 93  50 86 87  50 86 92  50 86 93  50 87 93  50 92 93  51 52 58  51 52 88  51 52 94  51 57 58  51 57 93  51 57 94  51 58 94  51 87 88  51 87 93  51 87 94  51 88 94  51 93 94  52 53 59  52 53 89  52 53 95  52 58 59  52 58 94  52 58 95  52 59 95  52 88 89  52 88 94  52 88 95  52 89 95  52 94 95  53 59 95  53 89 95  54 55 61  54 55 91  54 55 97  54 60 61  54 60 96  54 60 97  54 61 97  54 90 91  54 90 96  54 90 97  54 91 97  54 96 97  55 56 62  55 56 92  55 56 98  55 61 62  55 61 97  55 61 98  55 62 98  55 91 92  55 91 97  55 91 98  55 92 98  55 97 98  56 57 63  56 57 93  56 57 99  56 62 63  56 62 98  56 62 99  56 63 99  56 92 93  56 92 98  56 92 99  56 93 99  56 98 99  57 58 64  57 58 94  57 58 100  57 63 64  57 63 99  57 63 100  57 64 100  57 93 94  57 93 99  57 93 100  57 94 100  57 99 100  58 59 65  58 59 95  58 59 101  58 64 65  58 64 100  58 64 101  58 65 101  58 94 95  58 94 100  58 94 101  58 95 101  58 100 101  59 65 101  59 95 101  60 61 67  60 61 97  60 61 103  60 66 67  60 66 102  60 66 103  60 67 103  60 96 97  60 96 102  60 96 103  60 97 103  60 102 103  61 62 68  61 62 98  61 62 104  61 67 68  61 67 103  61 67 104  61 68 104  61 97 98  61 97 103  61 97 104  61 98 104  61 103 104  62 63 69  62 63 99  62 63 105  62 68 69  62 68 104  62 68 105  62 69 105  62 98 99  62 98 104  62 98 105  62 99 105  62 104 105  63 64 70  63 64 100  63 64 106  63 69 70  63 69 105  63 69 106  63 70 106  63 99 100  63 99 105  63 99 106  63 100 106  63 105 106  64 65 71  64 65 101  64 65 107  64 70 71  64 70 106  64 70 107  64 71 107  64 100 101  64 100 106  64 100 107  64 101 107  64 106 107  65 71 107  65 101 107  66 67 103  66 102 103  67 68 104  67 103 104  68 69 105  68 104 105  69 70 106  69 105 106  70 71 107  70 106 107  72 73 79  72 73 109  72 73 115  72 78 79  72 78 114  72 78 115  72 79 115  72 108 109  72 108 114  72 108 115  72 109 115  72 114 115  73 74 80  73 74 110  73 74 116  73 79 80  73 79 115  73 79 116  73 80 116  73 109 110 
[...]
<CellData  Scalars="f">
<DataArray  type="Float64"  Name="f"  format="ascii">1 0 0 1 0 0 0 0 0 0 0 0 1 0 0 1 0 0 0 0 0 0 0 0 1 0 0 1 0 0 0 0 0 0 0 0 1 0 0 1 0 0 0 0 0 0 0 0 1 0 0 1 0 0 0 0 0 0 0 0 0 0 1 0 0 1 0 0 0 0 0 0 0 0 1 0 0 1 0 0 0 0 0 0 0 0 1 0 0 1 0 0 0 0 0 0 0 0 1 0 0 1 0 0 0 0 0 0 0 0 1 0 0 1 0 0 0 0 0 0 0 0 0 0 1 0 0 1 0 0 0 0 0 0 0 0 1 0 0 1 0 0 0 0 0 0 0 0 1 0 0 1 0 0 0 0 0 0 0 0 1 0 0 1 0 0 0 0 0 0 0 0 1 0 0 1 0 0 0 0 0 0 0 0 0 0 1 0 0 1 0 0 0 0 0 0 0 0 1 0 0 1 0 0 0 0 0 0 0 0 1 0 0 1 0 0 0 0 0 0 0 0 1 0 0 1 0 0 0 0 0 0 0 0 1 0 0 1 0 0 0 0 0 0 0 0 0 0 1 0 0 1 0 0 0 0 0 0 0 0 1 0 0 1 0 0 0 0 0 0 0 0 1 0 0 1 0 0 0 0 0 0 0 0 1 0 0 1 0 0 0 0 0 0 0 0 1 0 0 1 0 0 0 0 0 0 0 0 0 0 0 0 0 0 0 0 0 0 0 0 0 0 0 0 0 0 0 0 0 0 0 0 0 0 0 0 0 0 0 0 0 0 0 0 0 0 0 0 0 0 0 0 0 0 0 0 0 0 0 0 0 0 0 0 0 0 0 0 0 0 0 0 0 0 0 0 0 0 0 0 0 0 0 0 0 0 0 0 0 0 0 0 0 0 0 0 0 0 0 0 0 0 0 0 0 0 0 0 0 0 0 0 0 0 0 0 0 0 0 0 0 0 0 0 0 0 0 0 0 0 0 0 0 0 0 0 0 0 0 0 0 0 0 0 0 0 0 0 0 0 0 0 0 0 0 0 0 0 0 0 0 0 0 0 0 0 0 0 0 0 0 0 0 0 0 0 0 0 0 0 0 0 0 0 0 0 0 0 0 0 0 0 0 0 0 0 0 0 0 0 0 0 0 0 0 0 0 0 0 0 0 0 0 0 0 0 0 0 0 0 0 0 0 0 0 0 0 0 0 0 0 0 0 0 0 0 0 0 0 0 0 0 0 0 0 0 0 0 0 0 0 0 0 0 0 0 0 0 0 0 0 0 0 0 0 0 0 0 0 0 0 0 0 0 0 0 0 0 0 0 0 0 0 0 0 0 0 0 0 0 0 0 0 0 0 0 0 0 0 0 0 0 0 0 0 0 0 0 0 0 0 0 0 0 0 0 0 0 0 0 0 0 0 0 0 0 0 0 0 0 0 0 0 0 0 0 0 0 0 0 0 0 0 0 0 0 0 0 0 0 0 0 0 0 0 0 0 0 0 0 0 0 0 0 0 0 0 0 0 0 0 0 0 0 0 0 0 0 0 0 0 0 0 0 0 0 0 0 0 0 0 0 0 0 0 0 0 0 0 0 0 0 0 0 0 0 0 0 0 0 0 0 0 0 0 0 0 0 0 0 0 0 0 0 0 0 0 0 0 0 0 0 0 0 0 0 0 0 0 0 0 0 0 0 0 0 0 0 0 0 0 0 0 0 0 0 0 0 0 0 0 0 0 0 0 0 0 0 0 0 0 0 0 0 0 0 0 0 0 0 0 0 0 0 0 0 0 0 0 0 0 0 0 0 0 0 0 0 0 0 0 0 0 0 0 0 0 0 0 0 0 0 0 0 0 0 0 0 0 0 0 0 0 0 0 0 0 0 0 0 0 0 0 0 0 0 0 0 0 0 0 0 0 0 0 0 0 0 0 0 0 0 0 0 0 0 0 0 0 0 0 0 0 0 0 0 0 0 0 0 0 0 0 0 0 0 0 0 0 0 0 0 0 0 0 0 0 0 0 0 0 0 0 0 0 0 0 0 0 0 0 0 0 0 0 0 0 0 0 0 0 0 0 0 0 0 0 0 0 0 0 0 0 0 0 0 0 0 0 0 0 0 0 0 0 0 0 0 0 0 0 0 0 0 0 0 0 0 0 0 0 0 0 0 0 0 0 0 0 0 0 0 0 0 0 0 0 0 0 0 0 0 0 0 0 0 0 0 0 0 0 0 0 0 0 0 0 0 0 0 0 0 0 0 0 0 0 0 0 0 0 0 0 0 0 0 0 0 0 0 0 0 0 0 0 0 0 0 0 0 0 0 0 0 0 0 0 0 0 0 0 0 0 0 0 0 0 0 0 0 0 0 0 0 0 0 0 0 0 0 0 0 0 0 0 0 0 0 0 0 0 0 0 0 0 0 0 0 0 0 0 0 0 0 0 0 0 0 0 0 0 0 0 0 0 0 0 0 0 0 0 0 0 0 0 0 0 0 0 0 0 0 0 0 0 0 0 0 0 0 0 0 0 0 0 0 0 0 0 0 0 0 0 0 0 0 0 0 0 0 0 0 0 0 0 0 0 0 0 0 0 0 0 0 0 0 0 0 0 0 0 0 0 0 0 0 0 0 0 0 0 0 0 0 0 0 0 0 0 0 0 0 0 0 0 0 0 0 0 0 0 0 0 0 0 0 0 0 0 0 0 0 0 0 0 0 0 0 0 0 0 0 0 0 0 0 0 0 0 0 0 0 0 0 0 0 0 0 0 0 0 0 0 0 0 0 0 0 0 0 0 0 0 0 0 0 0 0 0 0 0 0 0 0 0 0 0 0 0 0 0 0 0 0 0 0 0 0 0 0 0 0 0 0 0 0 0 0 0 0 0 0 0 0 0 0 0 0 0 0 0 0 0 0 0 0 0 0 0 0 0 0 0 0 0 0 0 0 0 0 0 0 0 0 0 0 0 0 0 0 0 0 0 0 0 0 0 0 0 0 0 0 0 0 0 0 0 0 0 0 0 0 0 0 0 0 0 0 0 0 0 0 0 0 0 0 0 0 0 0 0 0 0 0 0 0 0 0 0 0 0 0 0 0 0 0 0 0 0 0 0 0 0 0 0 0 0 0 0 0 0 0 0 0 0 0 0 0 0 0 0 0 0 0 0 0 0 0 0 0 0 0 0 0 0 0 0 0 0 0 0 0 0 0 0 0 0 0 0 0 0 0 0 0 0 0 0 0 0 0 0 0 0 0 0 0 0 0 0 0 0 0 0 0 0 0 0 0 0 0 0 0 0 0 0 0 0 0 0 0 0 0 0 0 0 0 0 0 0 0 0 0 0 0 0 0 0 0 0 0 0 0 0 0 0 0 0 0 0 0 0 0 0 0 0 0 0 0 0 0 0 0 0 0 0 0 0 0 0 0 0 0 0 0 0 0 0 0 0 0 0 0 0 0 0 0 0 0 0 0 0 0 0 0 0 0 0 0 0 0 0 0 0 0 0 0 0 0 0 0 0 0 0 0 0 0 0 0 0 0 0 0 0 0 0 0 0 0 0 0 0 0 0 0 0 0 0 0 0 0 0 0 0 0 0 0 0 0 0 0 0 0 0 0 0 0 0 0 0 0 2 2 2 2 2 2 2 2 2 2 2 2 2 2 2 2 2 2 2 2 2 2 2 2 2 2 2 2 2 2 2 2 2 2 2 2 2 2 2 2 2 2 2 2 2 2 2 2 2 2 </DataArray>
</CellData>
</Piece>
</UnstructuredGrid>
</VTKFile>